Composition,Ref,Density,Young_Modulus_ROM,Young_Modulus_Exp,Equilibrium_Conditions,Single_Multiphase,Type_Present_Phases,Tension_Compression,Testing_Temp,Yield_Strength,Specific_Strength
Hf0.4Nb1.5ATa1.5ATi0.89Zr0.64,[23],10.4,125,79,AC,S,BCC,C,RT,822,79.1
Hf0.4Nb1.5ATa1.5ATi0.89Zr0.64,[23],10.4,,,AC,S,BCC,C,300,590,56.8
Hf0.4Nb1.5ATa1.5ATi0.89Zr0.64,[23],10.4,,,AC,S,BCC,C,200,650,62.6
Hf0.4Nb1.5ATa1.5ATi0.89Zr0.64,[23],10.4,,,AC,S,BCC,C,100,765,73.7
Hf0.4Nb1.5ATa1.5ATi0.89Zr0.64,[23],10.4,,,AC,S,BCC,C,60,795,76.5